
    -----------------------------------------------------------------------
          Psi4: An Open-Source Ab Initio Electronic Structure Package
                               Psi4 1.2.1 release

                         Git: Rev {HEAD} 406f4de 


    R. M. Parrish, L. A. Burns, D. G. A. Smith, A. C. Simmonett,
    A. E. DePrince III, E. G. Hohenstein, U. Bozkaya, A. Yu. Sokolov,
    R. Di Remigio, R. M. Richard, J. F. Gonthier, A. M. James,
    H. R. McAlexander, A. Kumar, M. Saitow, X. Wang, B. P. Pritchard,
    P. Verma, H. F. Schaefer III, K. Patkowski, R. A. King, E. F. Valeev,
    F. A. Evangelista, J. M. Turney, T. D. Crawford, and C. D. Sherrill,
    J. Chem. Theory Comput. 13(7) pp 3185--3197 (2017).
    (doi: 10.1021/acs.jctc.7b00174)


                         Additional Contributions by
    P. Kraus, H. Kruse, M. H. Lechner, M. C. Schieber, and R. A. Shaw

    -----------------------------------------------------------------------


    Psi4 started on: Tuesday, 25 September 2018 07:09PM

    Process ID: 18002
    Host:       arancio.prib.upf.edu
    PSIDATADIR: /shared/joao/test_parameterize/miniconda3/share/psi4
    Memory:     500.0 MiB
    Threads:    1
    
  ==> Input File <==

--------------------------------------------------------------------------
set_num_threads(1)
set_memory('1151 MB')

set { scf_mem_safety_factor 0.7 }

set { reference rks }
set { basis cc-pVDZ }

molecule MOL {
    0 1
    noreorient
    nocom
    symmetry c1
    O    1.014300  -0.002300   0.060500
    O    2.462400  -0.107500  -0.002400
    H    0.821200  -0.823600  -0.430600
    H    2.655500   0.713700   0.488700
}

set optking { dynamic_level = 1 
 geom_maxiter = 250
 print_trajectory_xyz_file = True }

energy, wfn = optimize('B3LYP-D3', return_wfn=True)

import os
os.chdir(os.environ['HTMD_PSI4_WORKDIR'])

oeprop(wfn, 'DIPOLE', 'QUADRUPOLE', 'MULLIKEN_CHARGES')

with open('psi4out.xyz', 'w') as f:
    f.write('4 ' )
    f.write('%.12f\n' % energy)
    f.write(MOL.save_string_xyz())
--------------------------------------------------------------------------
  Threads set to 1 by Python driver.

  Memory set to   1.072 GiB by Python driver.
gradient() will perform analytic gradient computation.

*** tstart() called on arancio.prib.upf.edu
*** at Tue Sep 25 19:09:56 2018

   => Loading Basis Set <=

    Name: CC-PVDZ
    Role: ORBITAL
    Keyword: BASIS
    atoms 1-2 entry O          line   198 file /shared/joao/test_parameterize/miniconda3/share/psi4/basis/cc-pvdz.gbs 
    atoms 3-4 entry H          line    22 file /shared/joao/test_parameterize/miniconda3/share/psi4/basis/cc-pvdz.gbs 


         ---------------------------------------------------------
                                   SCF
            by Justin Turney, Rob Parrish, Andy Simmonett
                             and Daniel Smith
                              RKS Reference
                        1 Threads,   1097 MiB Core
         ---------------------------------------------------------

  ==> Geometry <==

    Molecular point group: c1
    Full point group: C1

    Geometry (in Angstrom), charge = 0, multiplicity = 1:

       Center              X                  Y                   Z               Mass       
    ------------   -----------------  -----------------  -----------------  -----------------
         O            1.014300000000    -0.002300000000     0.060500000000    15.994914619560
         O            2.462400000000    -0.107500000000    -0.002400000000    15.994914619560
         H            0.821200000000    -0.823600000000    -0.430600000000     1.007825032070
         H            2.655500000000     0.713700000000     0.488700000000     1.007825032070

  Running in c1 symmetry.

  Rotational constants: A =      9.55926  B =      0.13892  C =      0.13697 [cm^-1]
  Rotational constants: A = 286579.31287  B =   4164.81053  C =   4106.11611 [MHz]
  Nuclear repulsion =   36.782795687979593

  Charge       = 0
  Multiplicity = 1
  Electrons    = 18
  Nalpha       = 9
  Nbeta        = 9

  ==> Algorithm <==

  SCF Algorithm Type is DF.
  DIIS enabled.
  MOM disabled.
  Fractional occupation disabled.
  Guess Type is SAD.
  Energy threshold   = 1.00e-08
  Density threshold  = 1.00e-08
  Integral threshold = 0.00e+00

  ==> Primary Basis <==

  Basis Set: CC-PVDZ
    Blend: CC-PVDZ
    Number of shells: 18
    Number of basis function: 38
    Number of Cartesian functions: 40
    Spherical Harmonics?: true
    Max angular momentum: 2

  ==> DFT Potential <==

   => Composite Functional: B3LYP-D3ZERO <= 

    B3LYP-d3zero Hyb-GGA Exchange-Correlation Functional

    P. J. Stephens, F. J. Devlin, C. F. Chabalowski, and M. J. Frisch, J. Phys. Chem. 98, 11623 (1994)

    Deriv               =              1
    GGA                 =           TRUE
    Meta                =          FALSE

    Exchange Hybrid     =           TRUE
    MP2 Hybrid          =          FALSE

   => Exchange Functionals <=

    0.0800   Slater exchange
    0.7200         Becke 88

   => Exact (HF) Exchange <=

    0.2000               HF 

   => Correlation Functionals <=

    0.1900   Vosko, Wilk & Nusair (VWN5_RPA)
    0.8100   Lee, Yang & Parr

   => Molecular Quadrature <=

    Radial Scheme       =       TREUTLER
    Pruning Scheme      =           FLAT
    Nuclear Scheme      =       TREUTLER

    BS radius alpha     =              1
    Pruning alpha       =              1
    Radial Points       =             75
    Spherical Points    =            302
    Total Points        =          88336
    Total Blocks        =            724
    Max Points          =            256
    Max Functions       =             38

   => -D3ZERO: Empirical Dispersion <=

    Grimme's -D3 (zero-damping) Dispersion Correction
    Grimme S.; Antony J.; Ehrlich S.; Krieg H. (2010), J. Chem. Phys., 132: 154104

        S6 =   1.000000E+00
        S8 =   1.703000E+00
       SR6 =   1.261000E+00
       SR8 =   1.000000E+00
    ALPHA6 =   1.400000E+01

   => Loading Basis Set <=

    Name: (CC-PVDZ AUX)
    Role: JKFIT
    Keyword: DF_BASIS_SCF
    atoms 1-2 entry O          line   221 file /shared/joao/test_parameterize/miniconda3/share/psi4/basis/cc-pvdz-jkfit.gbs 
    atoms 3-4 entry H          line    51 file /shared/joao/test_parameterize/miniconda3/share/psi4/basis/cc-pvdz-jkfit.gbs 

  ==> Pre-Iterations <==

   -------------------------------------------------------
    Irrep   Nso     Nmo     Nalpha   Nbeta   Ndocc  Nsocc
   -------------------------------------------------------
     A         38      38       0       0       0       0
   -------------------------------------------------------
    Total      38      38       9       9       9       0
   -------------------------------------------------------

  ==> Integral Setup <==

  DFHelper Memory: AOs need 0.003 [GiB]; user supplied 0.750 [GiB]. Using in-core AOs.

  ==> MemDFJK: Density-Fitted J/K Matrices <==

    J tasked:                   Yes
    K tasked:                   Yes
    wK tasked:                   No
    OpenMP threads:               1
    Memory (MB):                768
    Algorithm:                 Core
    Schwarz Cutoff:           1E-12
    Mask sparsity (%):       0.0000
    Fitting Condition:        1E-12

   => Auxiliary Basis Set <=

  Basis Set: (CC-PVDZ AUX)
    Blend: CC-PVDZ-JKFIT
    Number of shells: 66
    Number of basis function: 186
    Number of Cartesian functions: 212
    Spherical Harmonics?: true
    Max angular momentum: 3

  Minimum eigenvalue in the overlap matrix is 2.3857669537E-02.
  Using Symmetric Orthogonalization.

  SCF Guess: Superposition of Atomic Densities via on-the-fly atomic UHF.

  ==> Iterations <==

                           Total Energy        Delta E     RMS |[F,P]|

   @DF-RKS iter   0:  -151.54622859791877   -1.51546e+02   4.60926e-02 
   @DF-RKS iter   1:  -151.51788918572845    2.83394e-02   7.57707e-03 
   @DF-RKS iter   2:  -151.51669767908967    1.19151e-03   7.88823e-03 DIIS
   @DF-RKS iter   3:  -151.54945534665109   -3.27577e-02   6.79635e-04 DIIS
   @DF-RKS iter   4:  -151.54968030372160   -2.24957e-04   7.26861e-05 DIIS
   @DF-RKS iter   5:  -151.54968310706380   -2.80334e-06   9.32696e-06 DIIS
   @DF-RKS iter   6:  -151.54968316419078   -5.71270e-08   1.40856e-06 DIIS
   @DF-RKS iter   7:  -151.54968316399044    2.00345e-10   2.11175e-06 DIIS
   @DF-RKS iter   8:  -151.54968316634532   -2.35488e-09   9.71003e-08 DIIS
   @DF-RKS iter   9:  -151.54968316635558   -1.02602e-11   2.85599e-09 DIIS

  ==> Post-Iterations <==

    Orbital Energies [Eh]
    ---------------------

    Doubly Occupied:                                                      

       1A    -19.185346     2A    -19.185306     3A     -1.109330  
       4A     -0.886453     5A     -0.504034     6A     -0.493929  
       7A     -0.389593     8A     -0.357976     9A     -0.241896  

    Virtual:                                                              

      10A      0.026734    11A      0.051471    12A      0.105693  
      13A      0.573410    14A      0.576844    15A      0.844392  
      16A      0.846633    17A      0.870373    18A      0.985888  
      19A      0.985906    20A      1.070761    21A      1.281791  
      22A      1.307102    23A      1.320868    24A      1.477273  
      25A      1.653255    26A      1.800215    27A      2.041136  
      28A      2.109032    29A      2.297153    30A      2.384045  
      31A      2.659326    32A      2.859928    33A      2.931921  
      34A      2.989161    35A      3.167774    36A      3.513925  
      37A      3.514951    38A      3.840940  

    Final Occupation by Irrep:
              A 
    DOCC [     9 ]

  Energy converged.

  @DF-RKS Final Energy:  -151.54968316635558

   => Energetics <=

    Nuclear Repulsion Energy =             36.7827956879795934
    One-Electron Energy =                -281.5720342379669887
    Two-Electron Energy =                 107.7032274263540899
    DFT Exchange-Correlation Energy =     -14.4633532527222801
    Empirical Dispersion Energy =          -0.0003187900000000
    VV10 Nonlocal Energy =                  0.0000000000000000
    Total Energy =                       -151.5496831663555781



Properties will be evaluated at   0.000000,   0.000000,   0.000000 [a0]

Properties computed using the SCF density matrix

  Nuclear Dipole Moment: [e a0]
     X:    59.1301      Y:    -1.8676      Z:     0.9881

  Electronic Dipole Moment: [e a0]
     X:   -59.1301      Y:     1.8676      Z:    -0.9881

  Dipole Moment: [e a0]
     X:    -0.0000      Y:    -0.0000      Z:     0.0000     Total:     0.0000

  Dipole Moment: [D]
     X:    -0.0000      Y:    -0.0001      Z:     0.0000     Total:     0.0001


*** tstop() called on arancio.prib.upf.edu at Tue Sep 25 19:09:59 2018
Module time:
	user time   =       2.51 seconds =       0.04 minutes
	system time =       0.05 seconds =       0.00 minutes
	total time  =          3 seconds =       0.05 minutes
Total time:
	user time   =       2.51 seconds =       0.04 minutes
	system time =       0.05 seconds =       0.00 minutes
	total time  =          3 seconds =       0.05 minutes

*** tstart() called on arancio.prib.upf.edu
*** at Tue Sep 25 19:09:59 2018


         ------------------------------------------------------------
                                   SCF GRAD                          
                          Rob Parrish, Justin Turney,                
                       Andy Simmonett, and Alex Sokolov              
         ------------------------------------------------------------

  ==> Geometry <==

    Molecular point group: c1
    Full point group: C1

    Geometry (in Angstrom), charge = 0, multiplicity = 1:

       Center              X                  Y                   Z               Mass       
    ------------   -----------------  -----------------  -----------------  -----------------
         O            1.014300000000    -0.002300000000     0.060500000000    15.994914619560
         O            2.462400000000    -0.107500000000    -0.002400000000    15.994914619560
         H            0.821200000000    -0.823600000000    -0.430600000000     1.007825032070
         H            2.655500000000     0.713700000000     0.488700000000     1.007825032070

  Nuclear repulsion =   36.782795687979593

  ==> Basis Set <==

  Basis Set: CC-PVDZ
    Blend: CC-PVDZ
    Number of shells: 18
    Number of basis function: 38
    Number of Cartesian functions: 40
    Spherical Harmonics?: true
    Max angular momentum: 2

  ==> DFJKGrad: Density-Fitted SCF Gradients <==

    Gradient:                    1
    J tasked:                  Yes
    K tasked:                  Yes
    wK tasked:                  No
    OpenMP threads:              1
    Integrals threads:           1
    Memory (MB):               768
    Schwarz Cutoff:          0E+00
    Fitting Condition:       1E-12

   => Auxiliary Basis Set <=

  Basis Set: (CC-PVDZ AUX)
    Blend: CC-PVDZ-JKFIT
    Number of shells: 66
    Number of basis function: 186
    Number of Cartesian functions: 212
    Spherical Harmonics?: true
    Max angular momentum: 3

  ==> DFT Potential <==

   => Composite Functional: B3LYP-D3ZERO <= 

    B3LYP-d3zero Hyb-GGA Exchange-Correlation Functional

    P. J. Stephens, F. J. Devlin, C. F. Chabalowski, and M. J. Frisch, J. Phys. Chem. 98, 11623 (1994)

    Deriv               =              1
    GGA                 =           TRUE
    Meta                =          FALSE

    Exchange Hybrid     =           TRUE
    MP2 Hybrid          =          FALSE

   => Exchange Functionals <=

    0.0800   Slater exchange
    0.7200         Becke 88

   => Exact (HF) Exchange <=

    0.2000               HF 

   => Correlation Functionals <=

    0.1900   Vosko, Wilk & Nusair (VWN5_RPA)
    0.8100   Lee, Yang & Parr

   => Molecular Quadrature <=

    Radial Scheme       =       TREUTLER
    Pruning Scheme      =           FLAT
    Nuclear Scheme      =       TREUTLER

    BS radius alpha     =              1
    Pruning alpha       =              1
    Radial Points       =             75
    Spherical Points    =            302
    Total Points        =          88336
    Total Blocks        =            724
    Max Points          =            256
    Max Functions       =             38


  -Total Gradient:
     Atom            X                  Y                   Z
    ------   -----------------  -----------------  -----------------
       1        0.006792729469     0.009226287356     0.005517215236
       2       -0.006778871976    -0.009160657226    -0.005478055344
       3        0.003917259342    -0.004390963207    -0.002625687657
       4       -0.003931119387     0.004325339270     0.002586522536


*** tstop() called on arancio.prib.upf.edu at Tue Sep 25 19:10:00 2018
Module time:
	user time   =       0.56 seconds =       0.01 minutes
	system time =       0.01 seconds =       0.00 minutes
	total time  =          1 seconds =       0.02 minutes
Total time:
	user time   =       3.07 seconds =       0.05 minutes
	system time =       0.06 seconds =       0.00 minutes
	total time  =          4 seconds =       0.07 minutes

			-----------------------------------------
			 OPTKING 2.0: for geometry optimizations 
			  - R.A. King,  Bethel University        
			-----------------------------------------
	At level 1: Red. Int., RFO, no backsteps, dynamic trust

	Internal coordinates to be generated automatically.
	Detected frag 1 with atoms:  1 2 3 4
	---Fragment 1 Bond Connectivity---
	 1 : 2 3
	 2 : 1 4
	 3 : 1
	 4 : 2

	---Fragment 1 Geometry and Gradient---
	 O           1.9167492166       -0.0043463701        0.1143284310
	 O           4.6532616296       -0.2031455593       -0.0045353427
	 H           1.5518431003       -1.5563784430       -0.8137160728
	 H           5.0181677459        1.3486975410        0.9235091611
	             0.0067927295        0.0092262874        0.0055172152
	            -0.0067788720       -0.0091606572       -0.0054780553
	             0.0039172593       -0.0043909632       -0.0026256877
	            -0.0039311194        0.0043253393        0.0025865225

	Previous optimization step data not found.  Starting new optimization.

	---Fragment 1 Intrafragment Coordinates---
	 - Coordinate -           - BOHR/RAD -       - ANG/DEG -
	 R(1,2)           =         2.746297	       1.453278
	 R(1,3)           =         1.844784	       0.976217
	 R(2,4)           =         1.844625	       0.976133
	 B(1,2,4)         =         1.685490	      96.571484
	 B(2,1,3)         =         1.685473	      96.570488
	 D(3,1,2,4)       =        -3.141540	    -179.996968

	Current energy   :      -151.5496831664

	Generating empirical Hessian (Schlegel '84) for each fragment.
	Taking RFO optimization step.
	Going to follow RFO solution 1.
	Using RFO vector 1.
	Norm of target step-size    0.08369
	Projected energy change by RFO approximation:        -0.0022012144

	Back-transformation to cartesian coordinates...
	Successfully converged to displaced geometry.

	--- Internal Coordinate Step in ANG or DEG, aJ/ANG or AJ/DEG ---
	 ---------------------------------------------------------------------------
	   Coordinate                Previous        Force       Change         New 
	   ----------                --------       ------       ------       ------
	    1 R(1,2)          =      1.453278     0.084008     0.014218     1.467496
	    2 R(1,3)          =      0.976217    -0.034934    -0.004294     0.971924
	    3 R(2,4)          =      0.976133    -0.034293    -0.004214     0.971920
	    4 B(1,2,4)        =     96.571484     0.000681     3.177489    99.748973
	    5 B(2,1,3)        =     96.570488     0.000681     3.178719    99.749207
	    6 D(3,1,2,4)      =   -179.996968     0.000000     0.002600  -179.994367
	 ---------------------------------------------------------------------------
	Successfully symmetrized geometry.

  ==> Convergence Check <==

  Measures of convergence in internal coordinates in au.
  Criteria marked as inactive (o), active & met (*), and active & unmet ( ).
  --------------------------------------------------------------------------------------------- ~
   Step     Total Energy     Delta E     MAX Force     RMS Force      MAX Disp      RMS Disp    ~
  --------------------------------------------------------------------------------------------- ~
    Convergence Criteria    1.00e-06 *    3.00e-04 *             o    1.20e-03 *             o  ~
  --------------------------------------------------------------------------------------------- ~
      1    -151.54968317   -1.52e+02      1.02e-02      7.06e-03 o    5.55e-02      3.42e-02 o  ~
  ---------------------------------------------------------------------------------------------

	Writing optimization data to binary file.
	Structure for next step:
	Cartesian Geometry (in Angstrom)
	    O     1.0056610682  -0.0211100957   0.0492392305
	    O     2.4710413158  -0.0887144145   0.0088211509
	    H     0.7899037991  -0.8344774401  -0.4370922987
	    H     2.6867938169   0.7246019503   0.4952319173
			--------------------------
			 OPTKING Finished Execution 
			--------------------------

    Structure for next step:
    Molecular point group: c1
    Full point group: C1

    Geometry (in Angstrom), charge = 0, multiplicity = 1:

    O            1.005661068230    -0.021110095659     0.049239230535
    O            2.471041315841    -0.088714414500     0.008821150917
    H            0.789903799078    -0.834477440119    -0.437092298748
    H            2.686793816851     0.724601950277     0.495231917295

gradient() will perform analytic gradient computation.

*** tstart() called on arancio.prib.upf.edu
*** at Tue Sep 25 19:10:00 2018

   => Loading Basis Set <=

    Name: CC-PVDZ
    Role: ORBITAL
    Keyword: BASIS
    atoms 1-2 entry O          line   198 file /shared/joao/test_parameterize/miniconda3/share/psi4/basis/cc-pvdz.gbs 
    atoms 3-4 entry H          line    22 file /shared/joao/test_parameterize/miniconda3/share/psi4/basis/cc-pvdz.gbs 


         ---------------------------------------------------------
                                   SCF
            by Justin Turney, Rob Parrish, Andy Simmonett
                             and Daniel Smith
                              RKS Reference
                        1 Threads,   1097 MiB Core
         ---------------------------------------------------------

  ==> Geometry <==

    Molecular point group: c1
    Full point group: C1

    Geometry (in Angstrom), charge = 0, multiplicity = 1:

       Center              X                  Y                   Z               Mass       
    ------------   -----------------  -----------------  -----------------  -----------------
         O            1.005661068230    -0.021110095659     0.049239230535    15.994914619560
         O            2.471041315841    -0.088714414500     0.008821150917    15.994914619560
         H            0.789903799078    -0.834477440119    -0.437092298748     1.007825032070
         H            2.686793816851     0.724601950277     0.495231917295     1.007825032070

  Running in c1 symmetry.

  Rotational constants: A =      9.61744  B =      0.13835  C =      0.13642 [cm^-1]
  Rotational constants: A = 288323.57576  B =   4147.49301  C =   4089.63186 [MHz]
  Nuclear repulsion =   36.465347122129323

  Charge       = 0
  Multiplicity = 1
  Electrons    = 18
  Nalpha       = 9
  Nbeta        = 9

  ==> Algorithm <==

  SCF Algorithm Type is DF.
  DIIS enabled.
  MOM disabled.
  Fractional occupation disabled.
  Guess Type is READ.
  Energy threshold   = 1.00e-08
  Density threshold  = 1.00e-08
  Integral threshold = 0.00e+00

  ==> Primary Basis <==

  Basis Set: CC-PVDZ
    Blend: CC-PVDZ
    Number of shells: 18
    Number of basis function: 38
    Number of Cartesian functions: 40
    Spherical Harmonics?: true
    Max angular momentum: 2

  ==> DFT Potential <==

   => Composite Functional: B3LYP-D3ZERO <= 

    B3LYP-d3zero Hyb-GGA Exchange-Correlation Functional

    P. J. Stephens, F. J. Devlin, C. F. Chabalowski, and M. J. Frisch, J. Phys. Chem. 98, 11623 (1994)

    Deriv               =              1
    GGA                 =           TRUE
    Meta                =          FALSE

    Exchange Hybrid     =           TRUE
    MP2 Hybrid          =          FALSE

   => Exchange Functionals <=

    0.0800   Slater exchange
    0.7200         Becke 88

   => Exact (HF) Exchange <=

    0.2000               HF 

   => Correlation Functionals <=

    0.1900   Vosko, Wilk & Nusair (VWN5_RPA)
    0.8100   Lee, Yang & Parr

   => Molecular Quadrature <=

    Radial Scheme       =       TREUTLER
    Pruning Scheme      =           FLAT
    Nuclear Scheme      =       TREUTLER

    BS radius alpha     =              1
    Pruning alpha       =              1
    Radial Points       =             75
    Spherical Points    =            302
    Total Points        =          88340
    Total Blocks        =            722
    Max Points          =            256
    Max Functions       =             38

   => -D3ZERO: Empirical Dispersion <=

    Grimme's -D3 (zero-damping) Dispersion Correction
    Grimme S.; Antony J.; Ehrlich S.; Krieg H. (2010), J. Chem. Phys., 132: 154104

        S6 =   1.000000E+00
        S8 =   1.703000E+00
       SR6 =   1.261000E+00
       SR8 =   1.000000E+00
    ALPHA6 =   1.400000E+01

   => Loading Basis Set <=

    Name: (CC-PVDZ AUX)
    Role: JKFIT
    Keyword: DF_BASIS_SCF
    atoms 1-2 entry O          line   221 file /shared/joao/test_parameterize/miniconda3/share/psi4/basis/cc-pvdz-jkfit.gbs 
    atoms 3-4 entry H          line    51 file /shared/joao/test_parameterize/miniconda3/share/psi4/basis/cc-pvdz-jkfit.gbs 

  Reading orbitals from file 180, no projection.

  ==> Pre-Iterations <==

   -------------------------------------------------------
    Irrep   Nso     Nmo     Nalpha   Nbeta   Ndocc  Nsocc
   -------------------------------------------------------
     A         38      38       0       0       0       0
   -------------------------------------------------------
    Total      38      38       9       9       9       0
   -------------------------------------------------------

  ==> Integral Setup <==

  DFHelper Memory: AOs need 0.003 [GiB]; user supplied 0.750 [GiB]. Using in-core AOs.

  ==> MemDFJK: Density-Fitted J/K Matrices <==

    J tasked:                   Yes
    K tasked:                   Yes
    wK tasked:                   No
    OpenMP threads:               1
    Memory (MB):                768
    Algorithm:                 Core
    Schwarz Cutoff:           1E-12
    Mask sparsity (%):       0.0000
    Fitting Condition:        1E-12

   => Auxiliary Basis Set <=

  Basis Set: (CC-PVDZ AUX)
    Blend: CC-PVDZ-JKFIT
    Number of shells: 66
    Number of basis function: 186
    Number of Cartesian functions: 212
    Spherical Harmonics?: true
    Max angular momentum: 3

  Minimum eigenvalue in the overlap matrix is 2.4985085242E-02.
  Using Symmetric Orthogonalization.

  SCF Guess: Orbitals guess was supplied from a previous computation.

  ==> Iterations <==

                           Total Energy        Delta E     RMS |[F,P]|

   @DF-RKS iter   0:  -151.55067297528788   -1.51551e+02   1.19496e-03 
   @DF-RKS iter   1:  -151.54981795014476    8.55025e-04   2.04551e-04 
   @DF-RKS iter   2:  -151.54983738614783   -1.94360e-05   1.15155e-04 DIIS
   @DF-RKS iter   3:  -151.54984353344102   -6.14729e-06   2.61743e-05 DIIS
   @DF-RKS iter   4:  -151.54984388691915   -3.53478e-07   5.22395e-06 DIIS
   @DF-RKS iter   5:  -151.54984390168266   -1.47635e-08   1.75924e-06 DIIS
   @DF-RKS iter   6:  -151.54984390271161   -1.02895e-09   1.07977e-06 DIIS
   @DF-RKS iter   7:  -151.54984390332680   -6.15188e-10   3.24144e-08 DIIS
   @DF-RKS iter   8:  -151.54984390332791   -1.10845e-12   2.13124e-09 DIIS

  ==> Post-Iterations <==

    Orbital Energies [Eh]
    ---------------------

    Doubly Occupied:                                                      

       1A    -19.185418     2A    -19.185380     3A     -1.100763  
       4A     -0.892026     5A     -0.502134     6A     -0.495574  
       7A     -0.385808     8A     -0.353242     9A     -0.243911  

    Virtual:                                                              

      10A      0.016244    11A      0.054700    12A      0.105859  
      13A      0.571475    14A      0.582557    15A      0.843138  
      16A      0.857833    17A      0.871105    18A      0.984551  
      19A      0.990056    20A      1.071998    21A      1.298751  
      22A      1.310211    23A      1.312479    24A      1.476219  
      25A      1.626949    26A      1.806648    27A      2.050548  
      28A      2.113872    29A      2.314261    30A      2.369948  
      31A      2.654938    32A      2.866080    33A      2.937283  
      34A      2.965636    35A      3.169407    36A      3.517664  
      37A      3.529534    38A      3.821958  

    Final Occupation by Irrep:
              A 
    DOCC [     9 ]

  Energy converged.

  @DF-RKS Final Energy:  -151.54984390332791

   => Energetics <=

    Nuclear Repulsion Energy =             36.4653471221293231
    One-Electron Energy =                -280.9592719332505908
    Two-Electron Energy =                 107.4035839747667325
    DFT Exchange-Correlation Energy =     -14.4591561069733689
    Empirical Dispersion Energy =          -0.0003469600000000
    VV10 Nonlocal Energy =                  0.0000000000000000
    Total Energy =                       -151.5498439033279112



Properties will be evaluated at   0.000000,   0.000000,   0.000000 [a0]

Properties computed using the SCF density matrix

  Nuclear Dipole Moment: [e a0]
     X:    59.1301      Y:    -1.8679      Z:     0.9876

  Electronic Dipole Moment: [e a0]
     X:   -59.1301      Y:     1.8679      Z:    -0.9876

  Dipole Moment: [e a0]
     X:    -0.0000      Y:    -0.0000      Z:     0.0001     Total:     0.0001

  Dipole Moment: [D]
     X:    -0.0000      Y:    -0.0001      Z:     0.0001     Total:     0.0002


*** tstop() called on arancio.prib.upf.edu at Tue Sep 25 19:10:02 2018
Module time:
	user time   =       1.99 seconds =       0.03 minutes
	system time =       0.04 seconds =       0.00 minutes
	total time  =          2 seconds =       0.03 minutes
Total time:
	user time   =       5.07 seconds =       0.08 minutes
	system time =       0.10 seconds =       0.00 minutes
	total time  =          6 seconds =       0.10 minutes

*** tstart() called on arancio.prib.upf.edu
*** at Tue Sep 25 19:10:02 2018


         ------------------------------------------------------------
                                   SCF GRAD                          
                          Rob Parrish, Justin Turney,                
                       Andy Simmonett, and Alex Sokolov              
         ------------------------------------------------------------

  ==> Geometry <==

    Molecular point group: c1
    Full point group: C1

    Geometry (in Angstrom), charge = 0, multiplicity = 1:

       Center              X                  Y                   Z               Mass       
    ------------   -----------------  -----------------  -----------------  -----------------
         O            1.005661068230    -0.021110095659     0.049239230535    15.994914619560
         O            2.471041315841    -0.088714414500     0.008821150917    15.994914619560
         H            0.789903799078    -0.834477440119    -0.437092298748     1.007825032070
         H            2.686793816851     0.724601950277     0.495231917295     1.007825032070

  Nuclear repulsion =   36.465347122129323

  ==> Basis Set <==

  Basis Set: CC-PVDZ
    Blend: CC-PVDZ
    Number of shells: 18
    Number of basis function: 38
    Number of Cartesian functions: 40
    Spherical Harmonics?: true
    Max angular momentum: 2

  ==> DFJKGrad: Density-Fitted SCF Gradients <==

    Gradient:                    1
    J tasked:                  Yes
    K tasked:                  Yes
    wK tasked:                  No
    OpenMP threads:              1
    Integrals threads:           1
    Memory (MB):               768
    Schwarz Cutoff:          0E+00
    Fitting Condition:       1E-12

   => Auxiliary Basis Set <=

  Basis Set: (CC-PVDZ AUX)
    Blend: CC-PVDZ-JKFIT
    Number of shells: 66
    Number of basis function: 186
    Number of Cartesian functions: 212
    Spherical Harmonics?: true
    Max angular momentum: 3

  ==> DFT Potential <==

   => Composite Functional: B3LYP-D3ZERO <= 

    B3LYP-d3zero Hyb-GGA Exchange-Correlation Functional

    P. J. Stephens, F. J. Devlin, C. F. Chabalowski, and M. J. Frisch, J. Phys. Chem. 98, 11623 (1994)

    Deriv               =              1
    GGA                 =           TRUE
    Meta                =          FALSE

    Exchange Hybrid     =           TRUE
    MP2 Hybrid          =          FALSE

   => Exchange Functionals <=

    0.0800   Slater exchange
    0.7200         Becke 88

   => Exact (HF) Exchange <=

    0.2000               HF 

   => Correlation Functionals <=

    0.1900   Vosko, Wilk & Nusair (VWN5_RPA)
    0.8100   Lee, Yang & Parr

   => Molecular Quadrature <=

    Radial Scheme       =       TREUTLER
    Pruning Scheme      =           FLAT
    Nuclear Scheme      =       TREUTLER

    BS radius alpha     =              1
    Pruning alpha       =              1
    Radial Points       =             75
    Spherical Points    =            302
    Total Points        =          88340
    Total Blocks        =            722
    Max Points          =            256
    Max Functions       =             38


  -Total Gradient:
     Atom            X                  Y                   Z
    ------   -----------------  -----------------  -----------------
       1       -0.001779366421    -0.005066024537    -0.003029125733
       2        0.001780575078     0.005068902055     0.003031474933
       3       -0.004015348314     0.000670284680     0.000400490344
       4        0.004014139190    -0.000673166847    -0.000402832685


*** tstop() called on arancio.prib.upf.edu at Tue Sep 25 19:10:02 2018
Module time:
	user time   =       0.53 seconds =       0.01 minutes
	system time =       0.01 seconds =       0.00 minutes
	total time  =          0 seconds =       0.00 minutes
Total time:
	user time   =       5.60 seconds =       0.09 minutes
	system time =       0.11 seconds =       0.00 minutes
	total time  =          6 seconds =       0.10 minutes

			-----------------------------------------
			 OPTKING 2.0: for geometry optimizations 
			  - R.A. King,  Bethel University        
			-----------------------------------------
	At level 1: Red. Int., RFO, no backsteps, dynamic trust

	Previous internal coordinate definitions found.
	---Fragment 1 Geometry and Gradient---
	 O           1.9004240015       -0.0398922994        0.0930486607
	 O           4.6695913500       -0.1676459474        0.0166695594
	 H           1.4927018516       -1.5769338259       -0.8259847394
	 H           5.0773044894        1.3692992414        0.9358526960
	            -0.0017793664       -0.0050660245       -0.0030291257
	             0.0017805751        0.0050689021        0.0030314749
	            -0.0040153483        0.0006702847        0.0004004903
	             0.0040141392       -0.0006731668       -0.0004028327

	---Fragment 1 Intrafragment Coordinates---
	 - Coordinate -           - BOHR/RAD -       - ANG/DEG -
	 R(1,2)           =         2.773165	       1.467496
	 R(1,3)           =         1.836670	       0.971924
	 R(2,4)           =         1.836662	       0.971920
	 B(1,2,4)         =         1.740948	      99.748973
	 B(2,1,3)         =         1.740952	      99.749207
	 D(3,1,2,4)       =        -3.141494	    -179.994367

	Current energy   :      -151.5498439033

	Energy change for the previous step:
		Projected    :        -0.0022012144
		Actual       :        -0.0001607370
	Energy ratio indicates iffy step: Trust radius decreased to 1.250e-01.


	Performing BFGS update.
	Previous computed or guess Hessian on step 1.
	Steps to be used in Hessian update: 1
	Taking RFO optimization step.
	Going to follow RFO solution 1.
	Using RFO vector 1.
	Norm of target step-size    0.03761
	Projected energy change by RFO approximation:        -0.0001838866

	Back-transformation to cartesian coordinates...
	Successfully converged to displaced geometry.

	--- Internal Coordinate Step in ANG or DEG, aJ/ANG or AJ/DEG ---
	 ---------------------------------------------------------------------------
	   Coordinate                Previous        Force       Change         New 
	   ----------                --------       ------       ------       ------
	    1 R(1,2)          =      1.467496    -0.045433    -0.004208     1.463287
	    2 R(1,3)          =      0.971924    -0.001052    -0.000145     0.971778
	    3 R(2,4)          =      0.971920    -0.001020    -0.000142     0.971778
	    4 B(1,2,4)        =     99.748973    -0.000572    -1.489015    98.259958
	    5 B(2,1,3)        =     99.749207    -0.000572    -1.489136    98.260071
	    6 D(3,1,2,4)      =   -179.994367     0.000000     0.005816  -179.988551
	 ---------------------------------------------------------------------------
	Successfully symmetrized geometry.

  ==> Convergence Check <==

  Measures of convergence in internal coordinates in au.
  Criteria marked as inactive (o), active & met (*), and active & unmet ( ).
  ---------------------------------------------------------------------------------------------
   Step     Total Energy     Delta E     MAX Force     RMS Force      MAX Disp      RMS Disp   
  ---------------------------------------------------------------------------------------------
    Convergence Criteria    1.00e-06 *    3.00e-04 *             o    1.20e-03 *             o
  ---------------------------------------------------------------------------------------------
      2    -151.54984390   -1.61e-04      7.52e-03      4.89e-03 o    2.60e-02      1.54e-02 o  ~
  ---------------------------------------------------------------------------------------------

	Writing optimization data to binary file.
	Structure for next step:
	Cartesian Geometry (in Angstrom)
	    O     1.0083386999  -0.0129838797   0.0540700921
	    O     2.4683622877  -0.0968167868   0.0039474558
	    H     0.8048448883  -0.8285735763  -0.4335332168
	    H     2.6718541241   0.7186742428   0.4917156689
			--------------------------
			 OPTKING Finished Execution 
			--------------------------

    Structure for next step:
    Molecular point group: c1
    Full point group: C1

    Geometry (in Angstrom), charge = 0, multiplicity = 1:

    O            1.008338699897    -0.012983879677     0.054070092061
    O            2.468362287711    -0.096816786840     0.003947455785
    H            0.804844888321    -0.828573576316    -0.433533216791
    H            2.671854124072     0.718674242832     0.491715668945

gradient() will perform analytic gradient computation.

*** tstart() called on arancio.prib.upf.edu
*** at Tue Sep 25 19:10:02 2018

   => Loading Basis Set <=

    Name: CC-PVDZ
    Role: ORBITAL
    Keyword: BASIS
    atoms 1-2 entry O          line   198 file /shared/joao/test_parameterize/miniconda3/share/psi4/basis/cc-pvdz.gbs 
    atoms 3-4 entry H          line    22 file /shared/joao/test_parameterize/miniconda3/share/psi4/basis/cc-pvdz.gbs 


         ---------------------------------------------------------
                                   SCF
            by Justin Turney, Rob Parrish, Andy Simmonett
                             and Daniel Smith
                              RKS Reference
                        1 Threads,   1097 MiB Core
         ---------------------------------------------------------

  ==> Geometry <==

    Molecular point group: c1
    Full point group: C1

    Geometry (in Angstrom), charge = 0, multiplicity = 1:

       Center              X                  Y                   Z               Mass       
    ------------   -----------------  -----------------  -----------------  -----------------
         O            1.008338699897    -0.012983879677     0.054070092061    15.994914619560
         O            2.468362287711    -0.096816786840     0.003947455785    15.994914619560
         H            0.804844888321    -0.828573576316    -0.433533216791     1.007825032070
         H            2.671854124072     0.718674242832     0.491715668945     1.007825032070

  Running in c1 symmetry.

  Rotational constants: A =      9.63866  B =      0.13855  C =      0.13662 [cm^-1]
  Rotational constants: A = 288959.80963  B =   4153.51527  C =   4095.62013 [MHz]
  Nuclear repulsion =   36.590824529672261

  Charge       = 0
  Multiplicity = 1
  Electrons    = 18
  Nalpha       = 9
  Nbeta        = 9

  ==> Algorithm <==

  SCF Algorithm Type is DF.
  DIIS enabled.
  MOM disabled.
  Fractional occupation disabled.
  Guess Type is READ.
  Energy threshold   = 1.00e-08
  Density threshold  = 1.00e-08
  Integral threshold = 0.00e+00

  ==> Primary Basis <==

  Basis Set: CC-PVDZ
    Blend: CC-PVDZ
    Number of shells: 18
    Number of basis function: 38
    Number of Cartesian functions: 40
    Spherical Harmonics?: true
    Max angular momentum: 2

  ==> DFT Potential <==

   => Composite Functional: B3LYP-D3ZERO <= 

    B3LYP-d3zero Hyb-GGA Exchange-Correlation Functional

    P. J. Stephens, F. J. Devlin, C. F. Chabalowski, and M. J. Frisch, J. Phys. Chem. 98, 11623 (1994)

    Deriv               =              1
    GGA                 =           TRUE
    Meta                =          FALSE

    Exchange Hybrid     =           TRUE
    MP2 Hybrid          =          FALSE

   => Exchange Functionals <=

    0.0800   Slater exchange
    0.7200         Becke 88

   => Exact (HF) Exchange <=

    0.2000               HF 

   => Correlation Functionals <=

    0.1900   Vosko, Wilk & Nusair (VWN5_RPA)
    0.8100   Lee, Yang & Parr

   => Molecular Quadrature <=

    Radial Scheme       =       TREUTLER
    Pruning Scheme      =           FLAT
    Nuclear Scheme      =       TREUTLER

    BS radius alpha     =              1
    Pruning alpha       =              1
    Radial Points       =             75
    Spherical Points    =            302
    Total Points        =          88340
    Total Blocks        =            727
    Max Points          =            256
    Max Functions       =             38

   => -D3ZERO: Empirical Dispersion <=

    Grimme's -D3 (zero-damping) Dispersion Correction
    Grimme S.; Antony J.; Ehrlich S.; Krieg H. (2010), J. Chem. Phys., 132: 154104

        S6 =   1.000000E+00
        S8 =   1.703000E+00
       SR6 =   1.261000E+00
       SR8 =   1.000000E+00
    ALPHA6 =   1.400000E+01

   => Loading Basis Set <=

    Name: (CC-PVDZ AUX)
    Role: JKFIT
    Keyword: DF_BASIS_SCF
    atoms 1-2 entry O          line   221 file /shared/joao/test_parameterize/miniconda3/share/psi4/basis/cc-pvdz-jkfit.gbs 
    atoms 3-4 entry H          line    51 file /shared/joao/test_parameterize/miniconda3/share/psi4/basis/cc-pvdz-jkfit.gbs 

  Reading orbitals from file 180, no projection.

  ==> Pre-Iterations <==

   -------------------------------------------------------
    Irrep   Nso     Nmo     Nalpha   Nbeta   Ndocc  Nsocc
   -------------------------------------------------------
     A         38      38       0       0       0       0
   -------------------------------------------------------
    Total      38      38       9       9       9       0
   -------------------------------------------------------

  ==> Integral Setup <==

  DFHelper Memory: AOs need 0.003 [GiB]; user supplied 0.750 [GiB]. Using in-core AOs.

  ==> MemDFJK: Density-Fitted J/K Matrices <==

    J tasked:                   Yes
    K tasked:                   Yes
    wK tasked:                   No
    OpenMP threads:               1
    Memory (MB):                768
    Algorithm:                 Core
    Schwarz Cutoff:           1E-12
    Mask sparsity (%):       0.0000
    Fitting Condition:        1E-12

   => Auxiliary Basis Set <=

  Basis Set: (CC-PVDZ AUX)
    Blend: CC-PVDZ-JKFIT
    Number of shells: 66
    Number of basis function: 186
    Number of Cartesian functions: 212
    Spherical Harmonics?: true
    Max angular momentum: 3

  Minimum eigenvalue in the overlap matrix is 2.4499850355E-02.
  Using Symmetric Orthogonalization.

  SCF Guess: Orbitals guess was supplied from a previous computation.

  ==> Iterations <==

                           Total Energy        Delta E     RMS |[F,P]|

   @DF-RKS iter   0:  -151.55137097742258   -1.51551e+02   4.70647e-04 
   @DF-RKS iter   1:  -151.55006596400955    1.30501e-03   5.86737e-05 
   @DF-RKS iter   2:  -151.55006800704990   -2.04304e-06   2.86416e-05 DIIS
   @DF-RKS iter   3:  -151.55006839194104   -3.84891e-07   3.83189e-06 DIIS
   @DF-RKS iter   4:  -151.55006839708020   -5.13916e-09   2.66940e-06 DIIS
   @DF-RKS iter   5:  -151.55006840087117   -3.79097e-09   2.34354e-07 DIIS
   @DF-RKS iter   6:  -151.55006840089413   -2.29647e-11   1.30895e-07 DIIS
   @DF-RKS iter   7:  -151.55006840090203   -7.90124e-12   4.30795e-08 DIIS
   @DF-RKS iter   8:  -151.55006840090314   -1.10845e-12   6.46540e-10 DIIS

  ==> Post-Iterations <==

    Orbital Energies [Eh]
    ---------------------

    Doubly Occupied:                                                      

       1A    -19.185502     2A    -19.185464     3A     -1.104198  
       4A     -0.890661     5A     -0.499412     6A     -0.498452  
       7A     -0.387263     8A     -0.355967     9A     -0.243537  

    Virtual:                                                              

      10A      0.019854    11A      0.053736    12A      0.105969  
      13A      0.575493    14A      0.580129    15A      0.843747  
      16A      0.852317    17A      0.870592    18A      0.985296  
      19A      0.987722    20A      1.071775    21A      1.291235  
      22A      1.310348    23A      1.315193    24A      1.476280  
      25A      1.639402    26A      1.802188    27A      2.050298  
      28A      2.116624    29A      2.307891    30A      2.373617  
      31A      2.659348    32A      2.865830    33A      2.936554  
      34A      2.973286    35A      3.169490    36A      3.517681  
      37A      3.522675    38A      3.830357  

    Final Occupation by Irrep:
              A 
    DOCC [     9 ]

  Energy converged.

  @DF-RKS Final Energy:  -151.55006840090314

   => Energetics <=

    Nuclear Repulsion Energy =             36.5908245296722612
    One-Electron Energy =                -281.1966558342633675
    Two-Electron Energy =                 107.5177561502904098
    DFT Exchange-Correlation Energy =     -14.4616590366024376
    Empirical Dispersion Energy =          -0.0003342100000000
    VV10 Nonlocal Energy =                  0.0000000000000000
    Total Energy =                       -151.5500684009031431



Properties will be evaluated at   0.000000,   0.000000,   0.000000 [a0]

Properties computed using the SCF density matrix

  Nuclear Dipole Moment: [e a0]
     X:    59.1301      Y:    -1.8676      Z:     0.9870

  Electronic Dipole Moment: [e a0]
     X:   -59.1301      Y:     1.8676      Z:    -0.9869

  Dipole Moment: [e a0]
     X:    -0.0000      Y:    -0.0001      Z:     0.0001     Total:     0.0001

  Dipole Moment: [D]
     X:    -0.0000      Y:    -0.0002      Z:     0.0003     Total:     0.0003


*** tstop() called on arancio.prib.upf.edu at Tue Sep 25 19:10:04 2018
Module time:
	user time   =       1.90 seconds =       0.03 minutes
	system time =       0.03 seconds =       0.00 minutes
	total time  =          2 seconds =       0.03 minutes
Total time:
	user time   =       7.50 seconds =       0.12 minutes
	system time =       0.14 seconds =       0.00 minutes
	total time  =          8 seconds =       0.13 minutes

*** tstart() called on arancio.prib.upf.edu
*** at Tue Sep 25 19:10:04 2018


         ------------------------------------------------------------
                                   SCF GRAD                          
                          Rob Parrish, Justin Turney,                
                       Andy Simmonett, and Alex Sokolov              
         ------------------------------------------------------------

  ==> Geometry <==

    Molecular point group: c1
    Full point group: C1

    Geometry (in Angstrom), charge = 0, multiplicity = 1:

       Center              X                  Y                   Z               Mass       
    ------------   -----------------  -----------------  -----------------  -----------------
         O            1.008338699897    -0.012983879677     0.054070092061    15.994914619560
         O            2.468362287711    -0.096816786840     0.003947455785    15.994914619560
         H            0.804844888321    -0.828573576316    -0.433533216791     1.007825032070
         H            2.671854124072     0.718674242832     0.491715668945     1.007825032070

  Nuclear repulsion =   36.590824529672261

  ==> Basis Set <==

  Basis Set: CC-PVDZ
    Blend: CC-PVDZ
    Number of shells: 18
    Number of basis function: 38
    Number of Cartesian functions: 40
    Spherical Harmonics?: true
    Max angular momentum: 2

  ==> DFJKGrad: Density-Fitted SCF Gradients <==

    Gradient:                    1
    J tasked:                  Yes
    K tasked:                  Yes
    wK tasked:                  No
    OpenMP threads:              1
    Integrals threads:           1
    Memory (MB):               768
    Schwarz Cutoff:          0E+00
    Fitting Condition:       1E-12

   => Auxiliary Basis Set <=

  Basis Set: (CC-PVDZ AUX)
    Blend: CC-PVDZ-JKFIT
    Number of shells: 66
    Number of basis function: 186
    Number of Cartesian functions: 212
    Spherical Harmonics?: true
    Max angular momentum: 3

  ==> DFT Potential <==

   => Composite Functional: B3LYP-D3ZERO <= 

    B3LYP-d3zero Hyb-GGA Exchange-Correlation Functional

    P. J. Stephens, F. J. Devlin, C. F. Chabalowski, and M. J. Frisch, J. Phys. Chem. 98, 11623 (1994)

    Deriv               =              1
    GGA                 =           TRUE
    Meta                =          FALSE

    Exchange Hybrid     =           TRUE
    MP2 Hybrid          =          FALSE

   => Exchange Functionals <=

    0.0800   Slater exchange
    0.7200         Becke 88

   => Exact (HF) Exchange <=

    0.2000               HF 

   => Correlation Functionals <=

    0.1900   Vosko, Wilk & Nusair (VWN5_RPA)
    0.8100   Lee, Yang & Parr

   => Molecular Quadrature <=

    Radial Scheme       =       TREUTLER
    Pruning Scheme      =           FLAT
    Nuclear Scheme      =       TREUTLER

    BS radius alpha     =              1
    Pruning alpha       =              1
    Radial Points       =             75
    Spherical Points    =            302
    Total Points        =          88340
    Total Blocks        =            727
    Max Points          =            256
    Max Functions       =             38


  -Total Gradient:
     Atom            X                  Y                   Z
    ------   -----------------  -----------------  -----------------
       1        0.000151256787    -0.000159259644    -0.000094758388
       2       -0.000150976682     0.000159170081     0.000095657484
       3       -0.000131571038     0.000005218555     0.000002639664
       4        0.000131290793    -0.000005125877    -0.000003544703


*** tstop() called on arancio.prib.upf.edu at Tue Sep 25 19:10:05 2018
Module time:
	user time   =       0.51 seconds =       0.01 minutes
	system time =       0.01 seconds =       0.00 minutes
	total time  =          1 seconds =       0.02 minutes
Total time:
	user time   =       8.01 seconds =       0.13 minutes
	system time =       0.15 seconds =       0.00 minutes
	total time  =          9 seconds =       0.15 minutes

			-----------------------------------------
			 OPTKING 2.0: for geometry optimizations 
			  - R.A. King,  Bethel University        
			-----------------------------------------
	At level 1: Red. Int., RFO, no backsteps, dynamic trust

	Previous internal coordinate definitions found.
	---Fragment 1 Geometry and Gradient---
	 O           1.9054839920       -0.0245359767        0.1021776660
	 O           4.6645287205       -0.1829572122        0.0074596104
	 H           1.5209364184       -1.5657771402       -0.8192590492
	 H           5.0490725615        1.3580974977        0.9292079496
	             0.0001512568       -0.0001592596       -0.0000947584
	            -0.0001509767        0.0001591701        0.0000956575
	            -0.0001315710        0.0000052186        0.0000026397
	             0.0001312908       -0.0000051259       -0.0000035447

	---Fragment 1 Intrafragment Coordinates---
	 - Coordinate -           - BOHR/RAD -       - ANG/DEG -
	 R(1,2)           =         2.765212	       1.463287
	 R(1,3)           =         1.836395	       0.971778
	 R(2,4)           =         1.836394	       0.971778
	 B(1,2,4)         =         1.714960	      98.259958
	 B(2,1,3)         =         1.714962	      98.260071
	 D(3,1,2,4)       =        -3.141393	    -179.988551

	Current energy   :      -151.5500684009

	Energy change for the previous step:
		Projected    :        -0.0001838866
		Actual       :        -0.0002244976
	Energy ratio indicates good step: Trust radius increased to 3.750e-01.


	Performing BFGS update.
	Previous computed or guess Hessian on step 1.
	Steps to be used in Hessian update: 2 1
	Taking RFO optimization step.
	Going to follow RFO solution 1.
	Using RFO vector 1.
	Norm of target step-size    0.00135
	Projected energy change by RFO approximation:        -0.0000005195

	Back-transformation to cartesian coordinates...
	Successfully converged to displaced geometry.

	--- Internal Coordinate Step in ANG or DEG, aJ/ANG or AJ/DEG ---
	 ---------------------------------------------------------------------------
	   Coordinate                Previous        Force       Change         New 
	   ----------                --------       ------       ------       ------
	    1 R(1,2)          =      1.463287     0.000246     0.000148     1.463435
	    2 R(1,3)          =      0.971778    -0.000169    -0.000027     0.971751
	    3 R(2,4)          =      0.971778    -0.000166    -0.000026     0.971752
	    4 B(1,2,4)        =     98.259958    -0.000018    -0.051728    98.208230
	    5 B(2,1,3)        =     98.260071    -0.000018    -0.051849    98.208222
	    6 D(3,1,2,4)      =   -179.988551     0.000000     0.018331  -179.970220
	 ---------------------------------------------------------------------------
	Successfully symmetrized geometry.

  ==> Convergence Check <==

  Measures of convergence in internal coordinates in au.
  Criteria marked as inactive (o), active & met (*), and active & unmet ( ).
  ---------------------------------------------------------------------------------------------
   Step     Total Energy     Delta E     MAX Force     RMS Force      MAX Disp      RMS Disp   
  ---------------------------------------------------------------------------------------------
    Convergence Criteria    1.00e-06 *    3.00e-04 *             o    1.20e-03 *             o
  ---------------------------------------------------------------------------------------------
      3    -151.55006840   -2.24e-04      2.42e-04 *    1.41e-04 o    9.05e-04 *    5.51e-04 o  ~
  ---------------------------------------------------------------------------------------------


  **** Optimization is complete! (in 3 steps) ****

  ==> Optimization Summary <==

  Measures of convergence in internal coordinates in au.
  --------------------------------------------------------------------------------------------------------------- ~
   Step         Total Energy             Delta E       MAX Force       RMS Force        MAX Disp        RMS Disp  ~
  --------------------------------------------------------------------------------------------------------------- ~
      1    -151.549683166356   -151.549683166356      0.01019669      0.00706453      0.05547911      0.03416764  ~
      2    -151.549843903328     -0.000160736972      0.00751575      0.00488884      0.02599032      0.01535301  ~
      3    -151.550068400903     -0.000224497575      0.00024202      0.00014065      0.00090493      0.00055066  ~
  --------------------------------------------------------------------------------------------------------------- ~

	Writing optimization data to binary file.
	Final energy is   -151.5500684009031
	Final (previous) structure:
	Cartesian Geometry (in Angstrom)
	    O     1.0083386999  -0.0129838797   0.0540700921
	    O     2.4683622877  -0.0968167868   0.0039474558
	    H     0.8048448883  -0.8285735763  -0.4335332168
	    H     2.6718541241   0.7186742428   0.4917156689
	Saving final (previous) structure.
	Removing binary optimization data file.
			--------------------------
			 OPTKING Finished Execution 
			--------------------------

    Final optimized geometry and variables:
    Molecular point group: c1
    Full point group: C1

    Geometry (in Angstrom), charge = 0, multiplicity = 1:

    O            1.008338699897    -0.012983879677     0.054070092061
    O            2.468362287711    -0.096816786840     0.003947455785
    H            0.804844888321    -0.828573576316    -0.433533216791
    H            2.671854124072     0.718674242832     0.491715668945

	Removing binary optimization data file.
	Cleaning optimization helper files.


Properties will be evaluated at   0.000000,   0.000000,   0.000000 [a0]
OEProp: No title given, name of density matrix used for the following properties is 'SCF density'
  Nuclear Dipole Moment: [e a0]
     X:    59.1301      Y:    -1.8676      Z:     0.9870

  Electronic Dipole Moment: [e a0]
     X:   -59.1301      Y:     1.8676      Z:    -0.9869

  Dipole Moment: [e a0]
     X:    -0.0000      Y:    -0.0001      Z:     0.0001     Total:     0.0001

  Dipole Moment: [D]
     X:    -0.0000      Y:    -0.0002      Z:     0.0003     Total:     0.0003

  Quadrupole Moment: [D A]
    XX:   -10.6650     YY:    -9.3935     ZZ:   -11.2884
    XY:     3.0206     XZ:     1.8070     YZ:     1.7638

  Traceless Quadrupole Moment: [D A]
    XX:    -0.2160     YY:     1.0554     ZZ:    -0.8394
    XY:     3.0206     XZ:     1.8070     YZ:     1.7638

  Mulliken Charges: (a.u.)
   Center  Symbol    Alpha    Beta     Spin     Total
       1     O     4.09078  4.09078  0.00000 -0.18156
       2     O     4.09078  4.09078  0.00000 -0.18156
       3     H     0.40922  0.40922  0.00000  0.18156
       4     H     0.40922  0.40922  0.00000  0.18156

   Total alpha =  9.00000, Total beta =  9.00000, Total charge =  0.00000


    Psi4 stopped on: Tuesday, 25 September 2018 07:10PM
    Psi4 wall time for execution: 0:00:08.51

*** Psi4 exiting successfully. Buy a developer a beer!
