
    -----------------------------------------------------------------------
          Psi4: An Open-Source Ab Initio Electronic Structure Package
                               Psi4 1.2.1 release

                         Git: Rev {HEAD} 406f4de 


    R. M. Parrish, L. A. Burns, D. G. A. Smith, A. C. Simmonett,
    A. E. DePrince III, E. G. Hohenstein, U. Bozkaya, A. Yu. Sokolov,
    R. Di Remigio, R. M. Richard, J. F. Gonthier, A. M. James,
    H. R. McAlexander, A. Kumar, M. Saitow, X. Wang, B. P. Pritchard,
    P. Verma, H. F. Schaefer III, K. Patkowski, R. A. King, E. F. Valeev,
    F. A. Evangelista, J. M. Turney, T. D. Crawford, and C. D. Sherrill,
    J. Chem. Theory Comput. 13(7) pp 3185--3197 (2017).
    (doi: 10.1021/acs.jctc.7b00174)


                         Additional Contributions by
    P. Kraus, H. Kruse, M. H. Lechner, M. C. Schieber, and R. A. Shaw

    -----------------------------------------------------------------------


    Psi4 started on: Wednesday, 26 September 2018 01:39PM

    Process ID: 28159
    Host:       arancio.prib.upf.edu
    PSIDATADIR: /shared/joao/test_parameterize/miniconda3/share/psi4
    Memory:     500.0 MiB
    Threads:    1
    
  ==> Input File <==

--------------------------------------------------------------------------
set_num_threads(1)
set_memory('1151 MB')

set { scf_mem_safety_factor 0.7 }

set { reference rks }
set { basis cc-pVDZ }

molecule MOL {
    0 1
    noreorient
    nocom
    symmetry c1
    O    1.014300  -0.002300   0.060500
    O    2.462400  -0.107500  -0.002400
    H    0.821200  -0.823600  -0.430600
    H    2.559509  -0.749699   0.726289
}

set optking { frozen_dihedral = (" 3 1 2 4 ") }

energy, wfn = energy('B3LYP-D3', return_wfn=True)

import os
os.chdir(os.environ['HTMD_PSI4_WORKDIR'])

oeprop(wfn, 'DIPOLE', 'QUADRUPOLE', 'MULLIKEN_CHARGES')

with open('psi4out.xyz', 'w') as f:
    f.write('4 ' )
    f.write('%.12f\n' % energy)
    f.write(MOL.save_string_xyz())
--------------------------------------------------------------------------
  Threads set to 1 by Python driver.

  Memory set to   1.072 GiB by Python driver.

*** tstart() called on arancio.prib.upf.edu
*** at Wed Sep 26 13:39:06 2018

   => Loading Basis Set <=

    Name: CC-PVDZ
    Role: ORBITAL
    Keyword: BASIS
    atoms 1-2 entry O          line   198 file /shared/joao/test_parameterize/miniconda3/share/psi4/basis/cc-pvdz.gbs 
    atoms 3-4 entry H          line    22 file /shared/joao/test_parameterize/miniconda3/share/psi4/basis/cc-pvdz.gbs 


         ---------------------------------------------------------
                                   SCF
            by Justin Turney, Rob Parrish, Andy Simmonett
                             and Daniel Smith
                              RKS Reference
                        1 Threads,   1097 MiB Core
         ---------------------------------------------------------

  ==> Geometry <==

    Molecular point group: c1
    Full point group: C1

    Geometry (in Angstrom), charge = 0, multiplicity = 1:

       Center              X                  Y                   Z               Mass       
    ------------   -----------------  -----------------  -----------------  -----------------
         O            1.014300000000    -0.002300000000     0.060500000000    15.994914619560
         O            2.462400000000    -0.107500000000    -0.002400000000    15.994914619560
         H            0.821200000000    -0.823600000000    -0.430600000000     1.007825032070
         H            2.559509000000    -0.749699000000     0.726289000000     1.007825032070

  Running in c1 symmetry.

  Rotational constants: A =      9.53724  B =      0.13831  C =      0.13794 [cm^-1]
  Rotational constants: A = 285919.36969  B =   4146.30318  C =   4135.23508 [MHz]
  Nuclear repulsion =   36.829656849931176

  Charge       = 0
  Multiplicity = 1
  Electrons    = 18
  Nalpha       = 9
  Nbeta        = 9

  ==> Algorithm <==

  SCF Algorithm Type is DF.
  DIIS enabled.
  MOM disabled.
  Fractional occupation disabled.
  Guess Type is SAD.
  Energy threshold   = 1.00e-06
  Density threshold  = 1.00e-06
  Integral threshold = 0.00e+00

  ==> Primary Basis <==

  Basis Set: CC-PVDZ
    Blend: CC-PVDZ
    Number of shells: 18
    Number of basis function: 38
    Number of Cartesian functions: 40
    Spherical Harmonics?: true
    Max angular momentum: 2

  ==> DFT Potential <==

   => Composite Functional: B3LYP-D3ZERO <= 

    B3LYP-d3zero Hyb-GGA Exchange-Correlation Functional

    P. J. Stephens, F. J. Devlin, C. F. Chabalowski, and M. J. Frisch, J. Phys. Chem. 98, 11623 (1994)

    Deriv               =              1
    GGA                 =           TRUE
    Meta                =          FALSE

    Exchange Hybrid     =           TRUE
    MP2 Hybrid          =          FALSE

   => Exchange Functionals <=

    0.0800   Slater exchange
    0.7200         Becke 88

   => Exact (HF) Exchange <=

    0.2000               HF 

   => Correlation Functionals <=

    0.1900   Vosko, Wilk & Nusair (VWN5_RPA)
    0.8100   Lee, Yang & Parr

   => Molecular Quadrature <=

    Radial Scheme       =       TREUTLER
    Pruning Scheme      =           FLAT
    Nuclear Scheme      =       TREUTLER

    BS radius alpha     =              1
    Pruning alpha       =              1
    Radial Points       =             75
    Spherical Points    =            302
    Total Points        =          88300
    Total Blocks        =            715
    Max Points          =            256
    Max Functions       =             38

   => -D3ZERO: Empirical Dispersion <=

    Grimme's -D3 (zero-damping) Dispersion Correction
    Grimme S.; Antony J.; Ehrlich S.; Krieg H. (2010), J. Chem. Phys., 132: 154104

        S6 =   1.000000E+00
        S8 =   1.703000E+00
       SR6 =   1.261000E+00
       SR8 =   1.000000E+00
    ALPHA6 =   1.400000E+01

   => Loading Basis Set <=

    Name: (CC-PVDZ AUX)
    Role: JKFIT
    Keyword: DF_BASIS_SCF
    atoms 1-2 entry O          line   221 file /shared/joao/test_parameterize/miniconda3/share/psi4/basis/cc-pvdz-jkfit.gbs 
    atoms 3-4 entry H          line    51 file /shared/joao/test_parameterize/miniconda3/share/psi4/basis/cc-pvdz-jkfit.gbs 

  ==> Pre-Iterations <==

   -------------------------------------------------------
    Irrep   Nso     Nmo     Nalpha   Nbeta   Ndocc  Nsocc
   -------------------------------------------------------
     A         38      38       0       0       0       0
   -------------------------------------------------------
    Total      38      38       9       9       9       0
   -------------------------------------------------------

  ==> Integral Setup <==

  DFHelper Memory: AOs need 0.003 [GiB]; user supplied 0.750 [GiB]. Using in-core AOs.

  ==> MemDFJK: Density-Fitted J/K Matrices <==

    J tasked:                   Yes
    K tasked:                   Yes
    wK tasked:                   No
    OpenMP threads:               1
    Memory (MB):                768
    Algorithm:                 Core
    Schwarz Cutoff:           1E-12
    Mask sparsity (%):       0.0000
    Fitting Condition:        1E-12

   => Auxiliary Basis Set <=

  Basis Set: (CC-PVDZ AUX)
    Blend: CC-PVDZ-JKFIT
    Number of shells: 66
    Number of basis function: 186
    Number of Cartesian functions: 212
    Spherical Harmonics?: true
    Max angular momentum: 3

  Minimum eigenvalue in the overlap matrix is 2.5948641634E-02.
  Using Symmetric Orthogonalization.

  SCF Guess: Superposition of Atomic Densities via on-the-fly atomic UHF.

  ==> Iterations <==

                           Total Energy        Delta E     RMS |[F,P]|

   @DF-RKS iter   0:  -151.58412945223301   -1.51584e+02   4.66570e-02 
   @DF-RKS iter   1:  -151.50802481285325    7.61046e-02   8.25713e-03 
   @DF-RKS iter   2:  -151.50320811567764    4.81670e-03   9.04798e-03 DIIS
   @DF-RKS iter   3:  -151.54706183674526   -4.38537e-02   7.64180e-04 DIIS
   @DF-RKS iter   4:  -151.54733154521259   -2.69708e-04   2.02398e-04 DIIS
   @DF-RKS iter   5:  -151.54733730153978   -5.75633e-06   1.73673e-04 DIIS
   @DF-RKS iter   6:  -151.54735310767336   -1.58061e-05   5.64370e-06 DIIS
   @DF-RKS iter   7:  -151.54735312940926   -2.17359e-08   1.04682e-06 DIIS
   @DF-RKS iter   8:  -151.54735313032222   -9.12962e-10   1.23625e-07 DIIS

  ==> Post-Iterations <==

    Orbital Energies [Eh]
    ---------------------

    Doubly Occupied:                                                      

       1A    -19.190357     2A    -19.190317     3A     -1.116173  
       4A     -0.886923     5A     -0.532663     6A     -0.466487  
       7A     -0.421884     8A     -0.300987     9A     -0.282566  

    Virtual:                                                              

      10A      0.022830    11A      0.039249    12A      0.107817  
      13A      0.573990    14A      0.577776    15A      0.853343  
      16A      0.872968    17A      0.914683    18A      0.924123  
      19A      1.012335    20A      1.041902    21A      1.232776  
      22A      1.283644    23A      1.331606    24A      1.405031  
      25A      1.675791    26A      1.705324    27A      2.057042  
      28A      2.076077    29A      2.409651    30A      2.464047  
      31A      2.546935    32A      2.862573    33A      2.933563  
      34A      3.083310    35A      3.087156    36A      3.455820  
      37A      3.571539    38A      3.819872  

    Final Occupation by Irrep:
              A 
    DOCC [     9 ]

  Energy converged.

  @DF-RKS Final Energy:  -151.54735313032222

   => Energetics <=

    Nuclear Repulsion Energy =             36.8296568499311761
    One-Electron Energy =                -281.5935643814734135
    Two-Electron Energy =                 107.6783213752205768
    DFT Exchange-Correlation Energy =     -14.4615206040005742
    Empirical Dispersion Energy =          -0.0002463700000000
    VV10 Nonlocal Energy =                  0.0000000000000000
    Total Energy =                       -151.5473531303222501



Properties will be evaluated at   0.000000,   0.000000,   0.000000 [a0]

Properties computed using the SCF density matrix

  Nuclear Dipole Moment: [e a0]
     X:    58.9487      Y:    -4.6330      Z:     1.4371

  Electronic Dipole Moment: [e a0]
     X:   -59.0120      Y:     3.6687      Z:    -1.2805

  Dipole Moment: [e a0]
     X:    -0.0633      Y:    -0.9644      Z:     0.1566     Total:     0.9790

  Dipole Moment: [D]
     X:    -0.1608      Y:    -2.4512      Z:     0.3980     Total:     2.4885


*** tstop() called on arancio.prib.upf.edu at Wed Sep 26 13:39:10 2018
Module time:
	user time   =       3.53 seconds =       0.06 minutes
	system time =       0.06 seconds =       0.00 minutes
	total time  =          4 seconds =       0.07 minutes
Total time:
	user time   =       3.53 seconds =       0.06 minutes
	system time =       0.06 seconds =       0.00 minutes
	total time  =          4 seconds =       0.07 minutes


Properties will be evaluated at   0.000000,   0.000000,   0.000000 [a0]
OEProp: No title given, name of density matrix used for the following properties is 'SCF density'
  Nuclear Dipole Moment: [e a0]
     X:    58.9487      Y:    -4.6330      Z:     1.4371

  Electronic Dipole Moment: [e a0]
     X:   -59.0120      Y:     3.6687      Z:    -1.2805

  Dipole Moment: [e a0]
     X:    -0.0633      Y:    -0.9644      Z:     0.1566     Total:     0.9790

  Dipole Moment: [D]
     X:    -0.1608      Y:    -2.4512      Z:     0.3980     Total:     2.4885

  Quadrupole Moment: [D A]
    XX:   -11.6883     YY:    -9.5705     ZZ:   -10.6347
    XY:    -3.8424     XZ:     2.6607     YZ:    -0.3668

  Traceless Quadrupole Moment: [D A]
    XX:    -1.0571     YY:     1.0607     ZZ:    -0.0036
    XY:    -3.8424     XZ:     2.6607     YZ:    -0.3668

  Mulliken Charges: (a.u.)
   Center  Symbol    Alpha    Beta     Spin     Total
       1     O     4.08687  4.08687  0.00000 -0.17375
       2     O     4.08685  4.08685  0.00000 -0.17371
       3     H     0.41313  0.41313  0.00000  0.17375
       4     H     0.41314  0.41314  0.00000  0.17371

   Total alpha =  9.00000, Total beta =  9.00000, Total charge = -0.00000


    Psi4 stopped on: Wednesday, 26 September 2018 01:39PM
    Psi4 wall time for execution: 0:00:03.81

*** Psi4 exiting successfully. Buy a developer a beer!
