
    -----------------------------------------------------------------------
          Psi4: An Open-Source Ab Initio Electronic Structure Package
                               Psi4 1.2.1 release

                         Git: Rev {HEAD} 406f4de 


    R. M. Parrish, L. A. Burns, D. G. A. Smith, A. C. Simmonett,
    A. E. DePrince III, E. G. Hohenstein, U. Bozkaya, A. Yu. Sokolov,
    R. Di Remigio, R. M. Richard, J. F. Gonthier, A. M. James,
    H. R. McAlexander, A. Kumar, M. Saitow, X. Wang, B. P. Pritchard,
    P. Verma, H. F. Schaefer III, K. Patkowski, R. A. King, E. F. Valeev,
    F. A. Evangelista, J. M. Turney, T. D. Crawford, and C. D. Sherrill,
    J. Chem. Theory Comput. 13(7) pp 3185--3197 (2017).
    (doi: 10.1021/acs.jctc.7b00174)


                         Additional Contributions by
    P. Kraus, H. Kruse, M. H. Lechner, M. C. Schieber, and R. A. Shaw

    -----------------------------------------------------------------------


    Psi4 started on: Wednesday, 26 September 2018 01:39PM

    Process ID: 28254
    Host:       arancio.prib.upf.edu
    PSIDATADIR: /shared/joao/test_parameterize/miniconda3/share/psi4
    Memory:     500.0 MiB
    Threads:    1
    
  ==> Input File <==

--------------------------------------------------------------------------
set_num_threads(1)
set_memory('1151 MB')

set { scf_mem_safety_factor 0.7 }

set { reference rks }
set { basis cc-pVDZ }

molecule MOL {
    0 1
    noreorient
    nocom
    symmetry c1
    O    1.014300  -0.002300   0.060500
    O    2.462400  -0.107500  -0.002400
    H    0.821200  -0.823600  -0.430600
    H    2.502882  -1.082625  -0.020550
}

set optking { frozen_dihedral = (" 3 1 2 4 ") }

energy, wfn = energy('B3LYP-D3', return_wfn=True)

import os
os.chdir(os.environ['HTMD_PSI4_WORKDIR'])

oeprop(wfn, 'DIPOLE', 'QUADRUPOLE', 'MULLIKEN_CHARGES')

with open('psi4out.xyz', 'w') as f:
    f.write('4 ' )
    f.write('%.12f\n' % energy)
    f.write(MOL.save_string_xyz())
--------------------------------------------------------------------------
  Threads set to 1 by Python driver.

  Memory set to   1.072 GiB by Python driver.

*** tstart() called on arancio.prib.upf.edu
*** at Wed Sep 26 13:39:14 2018

   => Loading Basis Set <=

    Name: CC-PVDZ
    Role: ORBITAL
    Keyword: BASIS
    atoms 1-2 entry O          line   198 file /shared/joao/test_parameterize/miniconda3/share/psi4/basis/cc-pvdz.gbs 
    atoms 3-4 entry H          line    22 file /shared/joao/test_parameterize/miniconda3/share/psi4/basis/cc-pvdz.gbs 


         ---------------------------------------------------------
                                   SCF
            by Justin Turney, Rob Parrish, Andy Simmonett
                             and Daniel Smith
                              RKS Reference
                        1 Threads,   1097 MiB Core
         ---------------------------------------------------------

  ==> Geometry <==

    Molecular point group: c1
    Full point group: C1

    Geometry (in Angstrom), charge = 0, multiplicity = 1:

       Center              X                  Y                   Z               Mass       
    ------------   -----------------  -----------------  -----------------  -----------------
         O            1.014300000000    -0.002300000000     0.060500000000    15.994914619560
         O            2.462400000000    -0.107500000000    -0.002400000000    15.994914619560
         H            0.821200000000    -0.823600000000    -0.430600000000     1.007825032070
         H            2.502882000000    -1.082625000000    -0.020550000000     1.007825032070

  Running in c1 symmetry.

  Rotational constants: A =      9.37899  B =      0.13925  C =      0.13750 [cm^-1]
  Rotational constants: A = 281175.17430  B =   4174.74370  C =   4122.08367 [MHz]
  Nuclear repulsion =   36.878738811819318

  Charge       = 0
  Multiplicity = 1
  Electrons    = 18
  Nalpha       = 9
  Nbeta        = 9

  ==> Algorithm <==

  SCF Algorithm Type is DF.
  DIIS enabled.
  MOM disabled.
  Fractional occupation disabled.
  Guess Type is SAD.
  Energy threshold   = 1.00e-06
  Density threshold  = 1.00e-06
  Integral threshold = 0.00e+00

  ==> Primary Basis <==

  Basis Set: CC-PVDZ
    Blend: CC-PVDZ
    Number of shells: 18
    Number of basis function: 38
    Number of Cartesian functions: 40
    Spherical Harmonics?: true
    Max angular momentum: 2

  ==> DFT Potential <==

   => Composite Functional: B3LYP-D3ZERO <= 

    B3LYP-d3zero Hyb-GGA Exchange-Correlation Functional

    P. J. Stephens, F. J. Devlin, C. F. Chabalowski, and M. J. Frisch, J. Phys. Chem. 98, 11623 (1994)

    Deriv               =              1
    GGA                 =           TRUE
    Meta                =          FALSE

    Exchange Hybrid     =           TRUE
    MP2 Hybrid          =          FALSE

   => Exchange Functionals <=

    0.0800   Slater exchange
    0.7200         Becke 88

   => Exact (HF) Exchange <=

    0.2000               HF 

   => Correlation Functionals <=

    0.1900   Vosko, Wilk & Nusair (VWN5_RPA)
    0.8100   Lee, Yang & Parr

   => Molecular Quadrature <=

    Radial Scheme       =       TREUTLER
    Pruning Scheme      =           FLAT
    Nuclear Scheme      =       TREUTLER

    BS radius alpha     =              1
    Pruning alpha       =              1
    Radial Points       =             75
    Spherical Points    =            302
    Total Points        =          88270
    Total Blocks        =            710
    Max Points          =            256
    Max Functions       =             38

   => -D3ZERO: Empirical Dispersion <=

    Grimme's -D3 (zero-damping) Dispersion Correction
    Grimme S.; Antony J.; Ehrlich S.; Krieg H. (2010), J. Chem. Phys., 132: 154104

        S6 =   1.000000E+00
        S8 =   1.703000E+00
       SR6 =   1.261000E+00
       SR8 =   1.000000E+00
    ALPHA6 =   1.400000E+01

   => Loading Basis Set <=

    Name: (CC-PVDZ AUX)
    Role: JKFIT
    Keyword: DF_BASIS_SCF
    atoms 1-2 entry O          line   221 file /shared/joao/test_parameterize/miniconda3/share/psi4/basis/cc-pvdz-jkfit.gbs 
    atoms 3-4 entry H          line    51 file /shared/joao/test_parameterize/miniconda3/share/psi4/basis/cc-pvdz-jkfit.gbs 

  ==> Pre-Iterations <==

   -------------------------------------------------------
    Irrep   Nso     Nmo     Nalpha   Nbeta   Ndocc  Nsocc
   -------------------------------------------------------
     A         38      38       0       0       0       0
   -------------------------------------------------------
    Total      38      38       9       9       9       0
   -------------------------------------------------------

  ==> Integral Setup <==

  DFHelper Memory: AOs need 0.003 [GiB]; user supplied 0.750 [GiB]. Using in-core AOs.

  ==> MemDFJK: Density-Fitted J/K Matrices <==

    J tasked:                   Yes
    K tasked:                   Yes
    wK tasked:                   No
    OpenMP threads:               1
    Memory (MB):                768
    Algorithm:                 Core
    Schwarz Cutoff:           1E-12
    Mask sparsity (%):       0.0000
    Fitting Condition:        1E-12

   => Auxiliary Basis Set <=

  Basis Set: (CC-PVDZ AUX)
    Blend: CC-PVDZ-JKFIT
    Number of shells: 66
    Number of basis function: 186
    Number of Cartesian functions: 212
    Spherical Harmonics?: true
    Max angular momentum: 3

  Minimum eigenvalue in the overlap matrix is 2.4360939585E-02.
  Using Symmetric Orthogonalization.

  SCF Guess: Superposition of Atomic Densities via on-the-fly atomic UHF.

  ==> Iterations <==

                           Total Energy        Delta E     RMS |[F,P]|

   @DF-RKS iter   0:  -151.53153071756017   -1.51532e+02   4.69652e-02 
   @DF-RKS iter   1:  -151.50053646486234    3.09943e-02   8.00023e-03 
   @DF-RKS iter   2:  -151.49406388373635    6.47258e-03   8.88647e-03 DIIS
   @DF-RKS iter   3:  -151.53667997615020   -4.26161e-02   7.71149e-04 DIIS
   @DF-RKS iter   4:  -151.53695833247983   -2.78356e-04   1.81400e-04 DIIS
   @DF-RKS iter   5:  -151.53696355126922   -5.21879e-06   1.52023e-04 DIIS
   @DF-RKS iter   6:  -151.53697568522719   -1.21340e-05   4.19552e-06 DIIS
   @DF-RKS iter   7:  -151.53697570021345   -1.49863e-08   8.66388e-07 DIIS

  ==> Post-Iterations <==

    Orbital Energies [Eh]
    ---------------------

    Doubly Occupied:                                                      

       1A    -19.191948     2A    -19.191916     3A     -1.121266  
       4A     -0.887469     5A     -0.557549     6A     -0.427760  
       7A     -0.421391     8A     -0.354517     9A     -0.252372  

    Virtual:                                                              

      10A      0.014135    11A      0.020732    12A      0.128362  
      13A      0.554919    14A      0.572790    15A      0.863229  
      16A      0.865071    17A      0.914853    18A      0.925469  
      19A      1.002967    20A      1.044907    21A      1.173656  
      22A      1.277167    23A      1.299107    24A      1.562259  
      25A      1.582915    26A      1.780542    27A      2.023301  
      28A      2.092191    29A      2.335203    30A      2.379366  
      31A      2.628758    32A      2.880171    33A      2.902853  
      34A      3.002908    35A      3.165150    36A      3.473393  
      37A      3.559016    38A      3.821176  

    Final Occupation by Irrep:
              A 
    DOCC [     9 ]

  Energy converged.

  @DF-RKS Final Energy:  -151.53697570021345

   => Energetics <=

    Nuclear Repulsion Energy =             36.8787388118193178
    One-Electron Energy =                -281.6346308115233228
    Two-Electron Energy =                 107.6817653905779935
    DFT Exchange-Correlation Energy =     -14.4626659510874553
    Empirical Dispersion Energy =          -0.0001831400000000
    VV10 Nonlocal Energy =                  0.0000000000000000
    Total Energy =                       -151.5369757002134463



Properties will be evaluated at   0.000000,   0.000000,   0.000000 [a0]

Properties computed using the SCF density matrix

  Nuclear Dipole Moment: [e a0]
     X:    58.8417      Y:    -5.2622      Z:     0.0258

  Electronic Dipole Moment: [e a0]
     X:   -58.9393      Y:     4.1137      Z:    -0.3514

  Dipole Moment: [e a0]
     X:    -0.0976      Y:    -1.1485      Z:    -0.3256     Total:     1.1977

  Dipole Moment: [D]
     X:    -0.2480      Y:    -2.9192      Z:    -0.8275     Total:     3.0443


*** tstop() called on arancio.prib.upf.edu at Wed Sep 26 13:39:17 2018
Module time:
	user time   =       3.20 seconds =       0.05 minutes
	system time =       0.06 seconds =       0.00 minutes
	total time  =          3 seconds =       0.05 minutes
Total time:
	user time   =       3.20 seconds =       0.05 minutes
	system time =       0.06 seconds =       0.00 minutes
	total time  =          3 seconds =       0.05 minutes


Properties will be evaluated at   0.000000,   0.000000,   0.000000 [a0]
OEProp: No title given, name of density matrix used for the following properties is 'SCF density'
  Nuclear Dipole Moment: [e a0]
     X:    58.8417      Y:    -5.2622      Z:     0.0258

  Electronic Dipole Moment: [e a0]
     X:   -58.9393      Y:     4.1137      Z:    -0.3514

  Dipole Moment: [e a0]
     X:    -0.0976      Y:    -1.1485      Z:    -0.3256     Total:     1.1977

  Dipole Moment: [D]
     X:    -0.2480      Y:    -2.9192      Z:    -0.8275     Total:     3.0443

  Quadrupole Moment: [D A]
    XX:   -12.1438     YY:    -8.2557     ZZ:   -11.8627
    XY:    -5.0350     XZ:    -0.6471     YZ:     0.8858

  Traceless Quadrupole Moment: [D A]
    XX:    -1.3897     YY:     2.4983     ZZ:    -1.1086
    XY:    -5.0350     XZ:    -0.6471     YZ:     0.8858

  Mulliken Charges: (a.u.)
   Center  Symbol    Alpha    Beta     Spin     Total
       1     O     4.07966  4.07966  0.00000 -0.15931
       2     O     4.07964  4.07964  0.00000 -0.15927
       3     H     0.42034  0.42034  0.00000  0.15931
       4     H     0.42036  0.42036  0.00000  0.15928

   Total alpha =  9.00000, Total beta =  9.00000, Total charge =  0.00000


    Psi4 stopped on: Wednesday, 26 September 2018 01:39PM
    Psi4 wall time for execution: 0:00:03.52

*** Psi4 exiting successfully. Buy a developer a beer!
