
    -----------------------------------------------------------------------
          Psi4: An Open-Source Ab Initio Electronic Structure Package
                               Psi4 1.2.1 release

                         Git: Rev {HEAD} 406f4de 


    R. M. Parrish, L. A. Burns, D. G. A. Smith, A. C. Simmonett,
    A. E. DePrince III, E. G. Hohenstein, U. Bozkaya, A. Yu. Sokolov,
    R. Di Remigio, R. M. Richard, J. F. Gonthier, A. M. James,
    H. R. McAlexander, A. Kumar, M. Saitow, X. Wang, B. P. Pritchard,
    P. Verma, H. F. Schaefer III, K. Patkowski, R. A. King, E. F. Valeev,
    F. A. Evangelista, J. M. Turney, T. D. Crawford, and C. D. Sherrill,
    J. Chem. Theory Comput. 13(7) pp 3185--3197 (2017).
    (doi: 10.1021/acs.jctc.7b00174)


                         Additional Contributions by
    P. Kraus, H. Kruse, M. H. Lechner, M. C. Schieber, and R. A. Shaw

    -----------------------------------------------------------------------


    Psi4 started on: Wednesday, 26 September 2018 01:39PM

    Process ID: 28426
    Host:       arancio.prib.upf.edu
    PSIDATADIR: /shared/joao/test_parameterize/miniconda3/share/psi4
    Memory:     500.0 MiB
    Threads:    1
    
  ==> Input File <==

--------------------------------------------------------------------------
set_num_threads(1)
set_memory('1151 MB')

set { scf_mem_safety_factor 0.7 }

set { reference rks }
set { basis cc-pVDZ }

molecule MOL {
    0 1
    noreorient
    nocom
    symmetry c1
    O    1.014300  -0.002300   0.060500
    O    2.462400  -0.107500  -0.002400
    H    0.821200  -0.823600  -0.430600
    H    2.644544   0.851452   0.006080
}

set optking { frozen_dihedral = (" 3 1 2 4 ") }

energy, wfn = energy('B3LYP-D3', return_wfn=True)

import os
os.chdir(os.environ['HTMD_PSI4_WORKDIR'])

oeprop(wfn, 'DIPOLE', 'QUADRUPOLE', 'MULLIKEN_CHARGES')

with open('psi4out.xyz', 'w') as f:
    f.write('4 ' )
    f.write('%.12f\n' % energy)
    f.write(MOL.save_string_xyz())
--------------------------------------------------------------------------
  Threads set to 1 by Python driver.

  Memory set to   1.072 GiB by Python driver.

*** tstart() called on arancio.prib.upf.edu
*** at Wed Sep 26 13:39:22 2018

   => Loading Basis Set <=

    Name: CC-PVDZ
    Role: ORBITAL
    Keyword: BASIS
    atoms 1-2 entry O          line   198 file /shared/joao/test_parameterize/miniconda3/share/psi4/basis/cc-pvdz.gbs 
    atoms 3-4 entry H          line    22 file /shared/joao/test_parameterize/miniconda3/share/psi4/basis/cc-pvdz.gbs 


         ---------------------------------------------------------
                                   SCF
            by Justin Turney, Rob Parrish, Andy Simmonett
                             and Daniel Smith
                              RKS Reference
                        1 Threads,   1097 MiB Core
         ---------------------------------------------------------

  ==> Geometry <==

    Molecular point group: c1
    Full point group: C1

    Geometry (in Angstrom), charge = 0, multiplicity = 1:

       Center              X                  Y                   Z               Mass       
    ------------   -----------------  -----------------  -----------------  -----------------
         O            1.014300000000    -0.002300000000     0.060500000000    15.994914619560
         O            2.462400000000    -0.107500000000    -0.002400000000    15.994914619560
         H            0.821200000000    -0.823600000000    -0.430600000000     1.007825032070
         H            2.644544000000     0.851452000000     0.006080000000     1.007825032070

  Running in c1 symmetry.

  Rotational constants: A =      9.45922  B =      0.13889  C =      0.13720 [cm^-1]
  Rotational constants: A = 283580.16212  B =   4163.89825  C =   4113.10114 [MHz]
  Nuclear repulsion =   36.786866987082725

  Charge       = 0
  Multiplicity = 1
  Electrons    = 18
  Nalpha       = 9
  Nbeta        = 9

  ==> Algorithm <==

  SCF Algorithm Type is DF.
  DIIS enabled.
  MOM disabled.
  Fractional occupation disabled.
  Guess Type is SAD.
  Energy threshold   = 1.00e-06
  Density threshold  = 1.00e-06
  Integral threshold = 0.00e+00

  ==> Primary Basis <==

  Basis Set: CC-PVDZ
    Blend: CC-PVDZ
    Number of shells: 18
    Number of basis function: 38
    Number of Cartesian functions: 40
    Spherical Harmonics?: true
    Max angular momentum: 2

  ==> DFT Potential <==

   => Composite Functional: B3LYP-D3ZERO <= 

    B3LYP-d3zero Hyb-GGA Exchange-Correlation Functional

    P. J. Stephens, F. J. Devlin, C. F. Chabalowski, and M. J. Frisch, J. Phys. Chem. 98, 11623 (1994)

    Deriv               =              1
    GGA                 =           TRUE
    Meta                =          FALSE

    Exchange Hybrid     =           TRUE
    MP2 Hybrid          =          FALSE

   => Exchange Functionals <=

    0.0800   Slater exchange
    0.7200         Becke 88

   => Exact (HF) Exchange <=

    0.2000               HF 

   => Correlation Functionals <=

    0.1900   Vosko, Wilk & Nusair (VWN5_RPA)
    0.8100   Lee, Yang & Parr

   => Molecular Quadrature <=

    Radial Scheme       =       TREUTLER
    Pruning Scheme      =           FLAT
    Nuclear Scheme      =       TREUTLER

    BS radius alpha     =              1
    Pruning alpha       =              1
    Radial Points       =             75
    Spherical Points    =            302
    Total Points        =          88340
    Total Blocks        =            719
    Max Points          =            256
    Max Functions       =             38

   => -D3ZERO: Empirical Dispersion <=

    Grimme's -D3 (zero-damping) Dispersion Correction
    Grimme S.; Antony J.; Ehrlich S.; Krieg H. (2010), J. Chem. Phys., 132: 154104

        S6 =   1.000000E+00
        S8 =   1.703000E+00
       SR6 =   1.261000E+00
       SR8 =   1.000000E+00
    ALPHA6 =   1.400000E+01

   => Loading Basis Set <=

    Name: (CC-PVDZ AUX)
    Role: JKFIT
    Keyword: DF_BASIS_SCF
    atoms 1-2 entry O          line   221 file /shared/joao/test_parameterize/miniconda3/share/psi4/basis/cc-pvdz-jkfit.gbs 
    atoms 3-4 entry H          line    51 file /shared/joao/test_parameterize/miniconda3/share/psi4/basis/cc-pvdz-jkfit.gbs 

  ==> Pre-Iterations <==

   -------------------------------------------------------
    Irrep   Nso     Nmo     Nalpha   Nbeta   Ndocc  Nsocc
   -------------------------------------------------------
     A         38      38       0       0       0       0
   -------------------------------------------------------
    Total      38      38       9       9       9       0
   -------------------------------------------------------

  ==> Integral Setup <==

  DFHelper Memory: AOs need 0.003 [GiB]; user supplied 0.750 [GiB]. Using in-core AOs.

  ==> MemDFJK: Density-Fitted J/K Matrices <==

    J tasked:                   Yes
    K tasked:                   Yes
    wK tasked:                   No
    OpenMP threads:               1
    Memory (MB):                768
    Algorithm:                 Core
    Schwarz Cutoff:           1E-12
    Mask sparsity (%):       0.0000
    Fitting Condition:        1E-12

   => Auxiliary Basis Set <=

  Basis Set: (CC-PVDZ AUX)
    Blend: CC-PVDZ-JKFIT
    Number of shells: 66
    Number of basis function: 186
    Number of Cartesian functions: 212
    Spherical Harmonics?: true
    Max angular momentum: 3

  Minimum eigenvalue in the overlap matrix is 2.4279508339E-02.
  Using Symmetric Orthogonalization.

  SCF Guess: Superposition of Atomic Densities via on-the-fly atomic UHF.

  ==> Iterations <==

                           Total Energy        Delta E     RMS |[F,P]|

   @DF-RKS iter   0:  -151.52113841766521   -1.51521e+02   4.60778e-02 
   @DF-RKS iter   1:  -151.52020286096783    9.35557e-04   7.38214e-03 
   @DF-RKS iter   2:  -151.51874830547766    1.45456e-03   7.67975e-03 DIIS
   @DF-RKS iter   3:  -151.54979737000215   -3.10491e-02   7.10112e-04 DIIS
   @DF-RKS iter   4:  -151.55002287985954   -2.25510e-04   2.17211e-04 DIIS
   @DF-RKS iter   5:  -151.55003881327076   -1.59334e-05   1.30015e-04 DIIS
   @DF-RKS iter   6:  -151.55004767637340   -8.86310e-06   6.07724e-06 DIIS
   @DF-RKS iter   7:  -151.55004770101354   -2.46401e-08   6.50772e-07 DIIS

  ==> Post-Iterations <==

    Orbital Energies [Eh]
    ---------------------

    Doubly Occupied:                                                      

       1A    -19.185959     2A    -19.185919     3A     -1.109969  
       4A     -0.886391     5A     -0.500623     6A     -0.498253  
       7A     -0.399235     8A     -0.343171     9A     -0.247983  

    Virtual:                                                              

      10A      0.026325    11A      0.051653    12A      0.104960  
      13A      0.573163    14A      0.579288    15A      0.844814  
      16A      0.858176    17A      0.870946    18A      0.964964  
      19A      1.008983    20A      1.068821    21A      1.229467  
      22A      1.306484    23A      1.351001    24A      1.463610  
      25A      1.657171    26A      1.772614    27A      2.050906  
      28A      2.097968    29A      2.327279    30A      2.392239  
      31A      2.633747    32A      2.875747    33A      2.918715  
      34A      3.006591    35A      3.160951    36A      3.511995  
      37A      3.513662    38A      3.837401  

    Final Occupation by Irrep:
              A 
    DOCC [     9 ]

  Energy converged.

  @DF-RKS Final Energy:  -151.55004770101354

   => Energetics <=

    Nuclear Repulsion Energy =             36.7868669870827247
    One-Electron Energy =                -281.5738387062568790
    Two-Electron Energy =                 107.7003221752471234
    DFT Exchange-Correlation Energy =     -14.4630741970864776
    Empirical Dispersion Energy =          -0.0003239600000000
    VV10 Nonlocal Energy =                  0.0000000000000000
    Total Energy =                       -151.5500477010135114



Properties will be evaluated at   0.000000,   0.000000,   0.000000 [a0]

Properties computed using the SCF density matrix

  Nuclear Dipole Moment: [e a0]
     X:    59.1094      Y:    -1.6073      Z:     0.0761

  Electronic Dipole Moment: [e a0]
     X:   -59.1169      Y:     1.7016      Z:    -0.4068

  Dipole Moment: [e a0]
     X:    -0.0075      Y:     0.0943      Z:    -0.3306     Total:     0.3439

  Dipole Moment: [D]
     X:    -0.0191      Y:     0.2398      Z:    -0.8404     Total:     0.8741


*** tstop() called on arancio.prib.upf.edu at Wed Sep 26 13:39:26 2018
Module time:
	user time   =       3.24 seconds =       0.05 minutes
	system time =       0.06 seconds =       0.00 minutes
	total time  =          4 seconds =       0.07 minutes
Total time:
	user time   =       3.24 seconds =       0.05 minutes
	system time =       0.06 seconds =       0.00 minutes
	total time  =          4 seconds =       0.07 minutes


Properties will be evaluated at   0.000000,   0.000000,   0.000000 [a0]
OEProp: No title given, name of density matrix used for the following properties is 'SCF density'
  Nuclear Dipole Moment: [e a0]
     X:    59.1094      Y:    -1.6073      Z:     0.0761

  Electronic Dipole Moment: [e a0]
     X:   -59.1169      Y:     1.7016      Z:    -0.4068

  Dipole Moment: [e a0]
     X:    -0.0075      Y:     0.0943      Z:    -0.3306     Total:     0.3439

  Dipole Moment: [D]
     X:    -0.0191      Y:     0.2398      Z:    -0.8404     Total:     0.8741

  Quadrupole Moment: [D A]
    XX:   -10.8853     YY:    -8.8911     ZZ:   -11.8727
    XY:     3.5933     XZ:    -0.5829     YZ:     0.8879

  Traceless Quadrupole Moment: [D A]
    XX:    -0.3356     YY:     1.6586     ZZ:    -1.3230
    XY:     3.5933     XZ:    -0.5829     YZ:     0.8879

  Mulliken Charges: (a.u.)
   Center  Symbol    Alpha    Beta     Spin     Total
       1     O     4.09139  4.09139  0.00000 -0.18279
       2     O     4.09137  4.09137  0.00000 -0.18275
       3     H     0.40861  0.40861  0.00000  0.18279
       4     H     0.40863  0.40863  0.00000  0.18275

   Total alpha =  9.00000, Total beta =  9.00000, Total charge =  0.00000


    Psi4 stopped on: Wednesday, 26 September 2018 01:39PM
    Psi4 wall time for execution: 0:00:03.47

*** Psi4 exiting successfully. Buy a developer a beer!
